<?xml version="1.0"?>
<VTKFile type="UnstructuredGrid" version="0.1" byte_order="LittleEndian" header_type="UInt32">
  <UnstructuredGrid>
    <Piece NumberOfPoints="14332" NumberOfCells="9">
      <PointData>
      </PointData>
      <CellData>
        <DataArray type="Int64" Name="GeoType" format="ascii" RangeMin="0" RangeMax="8">
          0 1 2 3 4 5
          6 7 8
        </DataArray>
      </CellData>
      <Points>
        <DataArray type="Float64" Name="Points" NumberOfComponents="3" format="ascii" RangeMin="7154848.3691" RangeMax="7155923.2282">
          556800 7133192.5 424.41497803 556800 7134150 -150
          556800 7133150 -150 556800 7133190 424.32067871
          556800 7133191.5 424.38803101 556800 7133165 423.26751709
          556800 7133163.5 423.27386475 556800 7133160.5 423.28311157
          556800 7133150 423.11981201 556800 7133802 431.45446777
          556800 7133810.5 431.39907837 556800 7133790.5 431.58853149
          556800 7133892 431.28817749 556800 7133898.5 431.22131348
          556800 7133826 431.41601562 556800 7133723.5 431.80004883
          556800 7133744.5 431.96603394 556800 7133745.5 431.9644165
          556800 7133747 431.96115112 556800 7133701.5 431.97930908
          556800 7133774 431.76205444 556800 7133920.5 431.06008911
          556800 7133937 431.06524658 556800 7133908.5 431.09088135
          556800 7133877 431.35671997 556800 7134125 424.61102295
          556800 7134150 422.04116821 556800 7133942.5 431.08828735
          556800 7133867.5 431.42092896 556800 7133852.5 431.44091797
          556800 7133841 431.44125366 556800 7134131.5 424.32025146
          556800 7134098 425.87857056 556800 7134109.5 425.29119873
          556800 7134134.5 424.13552856 556800 7134088.5 426.31832886
          556800 7134073 427.1137085 556800 7134062 427.43920898
          556800 7134036.5 428.02832031 556800 7134036.5 428.02835083
          556800 7134056.5 427.77749634 556800 7134010.5 429.42037964
          556800 7134016.5 429.24780273 556800 7133989.5 430.37023926
          556800 7133985.5 430.50161743 556800 7133978.5 430.62573242
          556800 7133963.5 430.98977661 556800 7133947.5 431.081604
          556800 7133700.5 431.97988892 556800 7133678 431.89129639
          556800 7133700 431.9798584 556800 7133669.5 431.90505981
          556800 7133655 431.8503418 556800 7133638.5 431.86126709
          556800 7133627 431.80615234 556800 7133605 431.85394287
          556800 7133602 431.8374939 556800 7133599 431.84512329
          556800 7133577.5 431.48574829 556800 7133568 431.40045166
          556800 7133550.5 431.33624268 556800 7133541.5 431.1524353
          556800 7133527.5 431.04632568 556800 7133511.5 431.0020752
          556800 7133505 431.00970459 556800 7133494 431.00192261
          556800 7133471 430.80441284 556800 7133481.5 431.027771
          556800 7133457.5 430.46911621 556800 7133445.5 430.20352173
          556800 7133437.5 429.99786377 556800 7133429.5 430.01205444
          556800 7133415.5 429.8631897 556800 7133398 429.45458984
          556800 7133388.5 429.1546936 556800 7133362 427.88021851
          556800 7133373.5 428.6043396 556800 7133343.5 426.99636841
          556800 7133338 426.7210083 556800 7133295.5 425.95800781
          556800 7133310.5 426.34094238 556800 7133286.5 425.80929565
          556800 7133332 426.59793091 556800 7133262.5 425.12988281
          556800 7133274 425.5585022 556800 7133238.5 424.89855957
          556800 7133253 425.13885498 556800 7133215.5 424.86746216
          556800 7133219 424.94607544 557800 7133198.5 406.34945679
          557800 7133196.5 406.19174194 557800 7133150 -150
          557800 7133219.5 408.36276245 557800 7133199.5 406.44702148
          557800 7134150 -150 557800 7133162.5 402.97143555
          557800 7133174.5 404.44396973 557800 7133199.5 406.447052
          557800 7133150 401.37515259 557800 7133150.5 401.42529297
          557800 7134150 429.94094849 557800 7134145.5 430.02096558
          557800 7134120 430.00894165 557800 7134132 430.00598145
          557800 7134089.5 429.99636841 557800 7134097 429.99658203
          557800 7134104.5 430.00497437 557800 7134069.5 429.99069214
          557800 7134027.5 429.98144531 557800 7134042 429.97366333
          557800 7134057 429.99069214 557800 7133996 429.98672485
          557800 7133993.5 429.98666382 557800 7133966 429.99069214
          557800 7133981 429.9888916 557800 7134018 429.97921753
          557800 7133931.5 429.98544312 557800 7133939 429.98376465
          557800 7133963 429.98797607 557800 7133916 429.98718262
          557800 7133891 429.99801636 557800 7133894.5 429.99752808
          557800 7133912 429.99273682 557800 7133879.5 429.99560547
          557800 7133873 429.99667358 557800 7133864.5 429.99954224
          557800 7133832 430.00997925 557800 7133840.5 430.01263428
          557800 7133856 430.00439453 557800 7133813 429.96252441
          557800 7133791 429.54260254 557800 7133729.5 428.12042236
          557800 7133727 428.08511353 557800 7133781.5 429.33078003
          557800 7133754 428.4519043 557800 7133743 428.26306152
          557800 7133751 428.34072876 557800 7133749.5 428.32336426
          557800 7133708.5 427.73095703 557800 7133677 427.12283325
          557800 7133691 427.26525879 557800 7133695 427.41165161
          557800 7133672 427.01419067 557800 7133648.5 426.44805908
          557800 7133643 426.37789917 557800 7133587.5 425.0043335
          557800 7133584.5 424.95370483 557800 7133595.5 425.18545532
          557800 7133541.5 423.85205078 557800 7133539.5 423.81744385
          557800 7133536 423.56542969 557800 7133559.5 424.31369019
          557800 7133519 422.19784546 557800 7133499 421.98480225
          557800 7133465 420.5569458 557800 7133492.5 421.85632324
          557800 7133465 420.54986572 557800 7133464.5 420.52584839
          557800 7133395.5 418.07128906 557800 7133385.5 417.65011597
          557800 7133379.5 417.21401978 557800 7133432.5 419.22280884
          557800 7133407.5 418.62817383 557800 7133436 419.32626343
          557800 7133465 420.55395508 557800 7133339.5 414.9274292
          557800 7133294.5 413.27825928 557800 7133365 416.26300049
          557800 7133344 415.07217407 557800 7133274.5 412.21337891
          557800 7133301 413.87060547 557800 7133341.5 414.99859619
          557800 7133318 415.1880188 557800 7133269.5 411.96139526
          557800 7133247 411.49951172 557800 7133238.5 410.57589722
          557800 7133271 412.00125122 557800 7133223.5 408.74118042
          557800 7133621 425.78344727 557800 7133613.5 425.52578735
          556851.9375 7133150 418.83554077 556800 7133150 -150
          557800 7133150 -150 556841.125 7133150 419.70114136
          556826.9375 7133150 420.7718811 556851.4375 7133150 418.88650513
          556800 7133150 423.11981201 556819.4375 7133150 421.32525635
          556804.6875 7133150 422.83834839 557790.8125 7133150 400.43875122
          557770.625 7133150 398.82290649 557791.3125 7133150 400.47189331
          557489.0625 7133150 381.13061523 557536.0625 7133150 384.70114136
          557766.5625 7133150 398.48562622 557800 7133150 450
          557484 7133150 380.69192505 557667.1875 7133150 390.60403442
          557643.3125 7133150 389.78741455 557637.0625 7133150 389.58831787
          557673.75 7133150 390.87689209 557715.5 7133150 394.07528687
          557718 7133150 394.23123169 557745.5 7133150 396.31237793
          557741.0625 7133150 395.99508667 557675.875 7133150 390.99505615
          557695.9375 7133150 392.52310181 557572.5625 7133150 386.39154053
          557588.25 7133150 386.99285889 557615 7133150 388.35552979
          557540.5625 7133150 385.04968262 557604.75 7133150 387.64550781
          557564.8125 7133150 386.17431641 557463.25 7133150 380.33352661
          557458.625 7133150 380.04321289 557514.375 7133150 384.16937256
          557510.3125 7133150 383.89828491 557438.25 7133150 379.99847412
          557415.9375 7133150 380.18789673 557415.9375 7133150 380.18792725
          557413.9375 7133150 380.20611572 557433.6875 7133150 380.02624512
          557413.5 7133150 380.20410156 557388.125 7133150 380.14804077
          557383.125 7133150 380.19805908 557389.125 7133150 380.19000244
          557368 7133150 380.21328735 557364.6875 7133150 380.21243286
          557200.5625 7133150 380.52352905 557196.25 7133150 380.22296143
          557296.8125 7133150 380.22891235 557287.4375 7133150 380.95022583
          557337.75 7133150 380.17153931 557316.5625 7133150 380.08602905
          557311.625 7133150 380.01974487 557342.125 7133150 380.19238281
          557221.5 7133150 381.66464233 557226.3125 7133150 382.03927612
          557274.25 7133150 382.56274414 557150.25 7133150 382.71133423
          557144.0625 7133150 383.43746948 557124.625 7133150 383.90353394
          557265.5625 7133150 383.28771973 557169.6875 7133150 380.33004761
          557118.25 7133150 383.83618164 557250.5 7133150 383.93643188
          557246.375 7133150 384.17474365 556885.6875 7133150 415.87927246
          556876.3125 7133150 416.40383911 557015.6875 7133150 397.81967163
          557099.125 7133150 384.26879883 557042.5625 7133150 393.52377319
          557039.125 7133150 393.9911499 557066.625 7133150 389.2925415
          557174.8125 7133150 380.20336914 557092.75 7133150 384.55084229
          557073.5 7133150 387.78897095 556903.3125 7133150 414.83010864
          556936.375 7133150 412.60791016 557012.25 7133150 398.64199829
          556988.875 7133150 405.22793579 556955.1875 7133150 412.08230591
          556981.4375 7133150 407.18453979 556962.75 7133150 411.17773438
          556928.875 7133150 412.86968994 556861.25 7133150 417.83319092
          556876.3125 7133150 416.40386963 556911 7133150 414.34985352
          556860.75 7134150 413.53164673 557800 7134150 -150
          556800 7134150 -150 556829.625 7134150 417.7701416
          556845.4375 7134150 414.92767334 556800 7134150 422.04116821
          556802.3125 7134150 421.71218872 556810.75 7134150 420.43847656
          556861.25 7134150 413.48843384 557792.0625 7134150 429.9225769
          557786.25 7134150 429.82745361 557771.5625 7134150 429.60275269
          557763.6875 7134150 429.46127319 557800 7134150 429.94094849
          557744.625 7134150 429.09536743 557737.1875 7134150 429.04104614
          557713.1875 7134150 428.85488892 557711.625 7134150 428.8157959
          557710.1875 7134150 428.77420044 557639.75 7134150 426.45175171
          557652.5625 7134150 426.93075562 557622.8125 7134150 425.59661865
          557675.375 7134150 427.70758057 557605.5625 7134150 424.16064453
          557682.1875 7134150 427.88885498 557593.625 7134150 423.02197266
          557570.5 7134150 419.79263306 557565.5625 7134150 419.10345459
          557548.3125 7134150 416.31585693 557542.0625 7134150 415.31530762
          557461.6875 7134150 402.59371948 557486.5625 7134150 409.36810303
          557510.1875 7134150 412.17312622 557460.625 7134150 402.25866699
          557535.1875 7134150 414.20913696 557526.1875 7134150 413.00698853
          557511 7134150 412.24664307 557459.6875 7134150 402.02270508
          557485 7134150 409.16009521 557428.5 7134150 395.27090454
          557360.8125 7134150 388.87426758 557367.6875 7134150 389.27566528
          557395.875 7134150 392.22412109 557381.375 7134150 390.62762451
          557343.375 7134150 387.57302856 557418.6875 7134150 394.24468994
          557340.0625 7134150 387.3213501 557335.5625 7134150 387.1541748
          557316.625 7134150 386.41314697 557321 7134150 386.77459717
          557262.625 7134150 385.25445557 557249.125 7134150 385.32711792
          557262.625 7134150 385.25448608 557232.875 7134150 384.43078613
          557276.1875 7134150 384.96688843 557216.5625 7134150 384.05361938
          557302.1875 7134150 385.21694946 557294.1875 7134150 385.03173828
          557204.3125 7134150 383.7182312 557184.9375 7134150 383.79855347
          557144.1875 7134150 383.92364502 557159.1875 7134150 383.86123657
          557136.6875 7134150 383.92349243 557172.25 7134150 383.83218384
          557127.8125 7134150 383.88967896 557046 7134150 389.72427368
          557018.0625 7134150 394.27444458 557036.25 7134150 391.89758301
          557111.875 7134150 383.85140991 557087 7134150 383.39157104
          557094.6875 7134150 383.54977417 557079.25 7134150 384.32043457
          557061.625 7134150 386.26794434 556874.3125 7134150 412.27929688
          556977.5625 7134150 399.84988403 556923.1875 7134150 408.51895142
          556893.6875 7134150 411.5206604 556972.75 7134150 400.8430481
          556905.5 7134150 410.72601318 556943.9375 7134150 405.86257935
          556949.1875 7134150 405.43658447 556954 7134150 404.65316772
          557001.875 7134150 395.88998413 556998.6875 7134150 396.35861206
          557028.4375 7134150 393.18414307 556800 7133150 -150
          556800 7134150 -150 557800 7133150 -150
          557800 7134150 -150 557130.75 7133191.5 383.91461182
          557138.125 7133168 383.9364624 557112.625 7133168 383.66714478
          556884.0625 7134082 411.91378784 556867.0625 7134090.5 413.63348389
          556885.1875 7134107 412.2791748 557335.5 7133374 382.6552124
          557336.375 7133349 382.88439941 557312.4375 7133371.5 381.60699463
          557733.75 7133516 418.64694214 557751.1875 7133494.5 419.69638062
          557722 7133497 417.12463379 557546.625 7133697 406.16473389
          557522.375 7133724.5 401.96646118 557555.3125 7133725 409.19631958
          557596.6875 7133336 400.23150635 557577.8125 7133317 397.59835815
          557570.375 7133341.5 398.13598633 556926.0625 7133944 412.80273438
          556908.0625 7133968.5 414.03582764 556939.5625 7133966.5 409.43722534
          557498.125 7133752 396.16043091 557470.75 7133773.5 388.81158447
          557498.625 7133783.5 398.46899414 557301.8125 7133469 371.94586182
          557324 7133458 376.77685547 557301.4375 7133445 372.08538818
          557594.5625 7134085.5 424.45092773 557603.5 7134070 425.98474121
          557578.3125 7134070 422.33114624 557394.4375 7133818.5 380.22573853
          557424.4375 7133816.5 382.60168457 557413.4375 7133797.5 382.04672241
          557321.875 7134100.5 384.70629883 557298.9375 7134117.5 383.65179443
          557323.3125 7134126 386.82449341 557223.5625 7133219 382.93096924
          557198.3125 7133218.5 383.1633606 557215.25 7133243 380.92025757
          557142.9375 7133460.5 361.42425537 557168.0625 7133454.5 356.36373901
          557148.5625 7133436 360.15600586 556896.25 7133901.5 427.01043701
          556893.375 7133923 425.6862793 556911.1875 7133922.5 420.83624268
          557030.8125 7134042.5 395.46286011 557056.25 7134041.5 391.45895386
          557041.75 7134022.5 394.53485107 556881.9375 7133550 428.32693481
          556891.375 7133576.5 427.29934692 556910.9375 7133553 425.25976562
          556984.375 7133936 402.62918091 556965.6875 7133919.5 405.359375
          556955.1875 7133940 406.97009277 556848.1875 7134048 420.21151733
          556849.0625 7134073.5 416.77996826 556866.125 7134065 414.70117188
          557193.9375 7133898.5 384.25891113 557194.25 7133915.5 382.81671143
          557212.3125 7133898.5 382.7180481 557688.25 7133456.5 412.57797241
          557663.75 7133479 412.84448242 557696.4375 7133487 414.82626343
          556861.25 7134150 413.48843384 556874.3125 7134150 412.27929688
          556855.5625 7134135 414.71136475 556886.25 7134132 412.00567627
          556800 7134010.5 429.42037964 556800 7134016.5 429.24780273
          556804.875 7134011.5 429.2243042 557772.5 7133775 429.13290405
          557746 7133800 429.89627075 557781.3125 7133808.5 429.91485596
          557491.8125 7133696.5 393.41564941 557495 7133724 395.18209839
          557519.1875 7133696.5 400.06912231 557477.3125 7134092 404.03515625
          557451.875 7134116 399.20608521 557486.125 7134125 407.83877563
          557564.0625 7133753 412.52111816 557582.9375 7133754.5 417.63839722
          557582.875 7133735.5 416.84475708 557800 7133499 421.98480225
          557800 7133492.5 421.85632324 557781.5 7133489.5 420.70709229
          557785.9375 7133517 421.51269531 557197.125 7134021 383.93841553
          557225.3125 7134031.5 383.9375 557216.75 7134000 383.93460083
          557090 7133385.5 371.46438599 557114.75 7133386.5 372.88619995
          557100 7133361.5 376.61489868 557604.5625 7133689.5 415.93515015
          557627.125 7133705.5 422.06759644 557630 7133676.5 420.84854126
          556924.5 7133797.5 420.54302979 556935.8125 7133777 415.81860352
          556909.6875 7133776 425.71069336 557194.5625 7133933 382.78109741
          557222.5 7133942.5 382.90890503 557212.625 7133916 383.0743103
          557696.3125 7133846 430.04421997 557721.125 7133823 430.0458374
          557699.0625 7133825.5 430.10458374 557454.4375 7134013 397.79595947
          557436.5625 7133997.5 392.26486206 557425.4375 7134015.5 391.23043823
          557240.75 7133715 361.69863892 557220.5625 7133730 363.37582397
          557238.0625 7133738 364.87188721 557552.9375 7133772.5 410.09976196
          557531.125 7133752.5 404.22250366 557520 7133772.5 402.8633728
          557764.75 7133864 429.99951172 557763.9375 7133887.5 430.00018311
          557781.1875 7133879.5 429.99926758 557011.1875 7133190 398.68731689
          557029.6875 7133174 394.91748047 557000.8125 7133170.5 401.78237915
          557030.5 7133997.5 396.67776489 557051.25 7133976 392.76812744
          557029.0625 7133971 396.93377686 556873.1875 7133775.5 429.7734375
          556862.8125 7133748.5 429.95819092 556841.125 7133769.5 430.81121826
          557124.75 7133362 378.73724365 557108.875 7133337.5 377.7789917
          557800 7134145.5 430.02096558 557800 7134132 430.00598145
          557789.5625 7134144.5 430.01416016 556845.0625 7133505.5 431.11779785
          556863.5 7133528 430.10406494 556868.375 7133503 430.48382568
          557093 7133313 379.22961426 557070.5625 7133291 384.88009644
          557070.1875 7133316.5 383.40359497 557326.625 7133636.5 363.24945068
          557330.5 7133658.5 363.71142578 557350.125 7133640.5 369.29669189
          556836.75 7133663.5 430.97918701 556856.5625 7133653.5 430.27807617
          556836.0625 7133633.5 431.01483154 557712.8125 7133911 429.97567749
          557712.1875 7133934 429.9546814 557728.75 7133926 429.99194336
          557562.0625 7134054.5 419.79330444 557528.5625 7134045 413.23831177
          557536.8125 7134078 414.4899292 557300.375 7134142.5 384.74691772
          557320.125 7134146.5 386.55786133 557764.8125 7133554 422.7013855
          557775.0625 7133536 422.15927124 557752.6875 7133531.5 420.90420532
          556995.6875 7133559.5 401.30664062 557011.0625 7133532.5 396.73019409
          556984.0625 7133533 405.30584717 557036.875 7134132 391.78799438
          557048.1875 7134111 389.08041382 557018.25 7134114 395.54159546
          557744.625 7133748 428.31872559 557756.4375 7133727.5 427.86938477
          557726.375 7133730 427.9163208 557008.125 7133235.5 397.75390625
          557018.625 7133258.5 394.92547607 557037.5625 7133246 391.30752563
          557176.4375 7133407.5 359.73583984 557173.6875 7133430.5 354.97961426
          557195.875 7133426 350.7791748 557487.625 7133619.5 391.73245239
          557470.4375 7133640 388.00271606 557499.8125 7133637 394.05847168
          557421.1875 7133267 380.98156738 557427.375 7133243 380.0557251
          557402.3125 7133243.5 379.92779541 557800 7133993.5 429.98666382
          557800 7133981 429.9888916 557772.0625 7133990 430.00274658
          557797.375 7133965.5 429.99316406 557005.6875 7133701.5 397.51974487
          556975.5 7133703.5 406.19976807 556994.125 7133720.5 401.91036987
          557589.1875 7133361 400.69869995 557622 7133366 402.92218018
          557613.8125 7133343.5 401.6960144 557797.25 7133587.5 424.98657227
          557787.1875 7133558.5 424.05291748 557768.0625 7133576 423.58126831
          557511.0625 7134125.5 410.70443726 557527 7134141.5 412.91625977
          557527.5625 7134117.5 412.89520264 556968.6875 7133962.5 405.02999878
          556996.3125 7133964 401.92062378 556881.375 7133838.5 429.99893188
          556888.8125 7133870 428.65032959 556914 7133845 425.93478394
          557686.0625 7133181.5 395.91436768 557694.0625 7133156 392.82113647
          557665.8125 7133177.5 394.25408936 557639.1875 7133501.5 412.21783447
          557618.5625 7133522 411.9710083 557647.125 7133534 414.47232056
          556800 7134036.5 428.02832031 556800 7134056.5 427.77749634
          556816.0625 7134040.5 426.73138428 556800 7134036.5 428.02835083
          557672.75 7133222 397.68121338 557650.8125 7133248.5 398.54666138
          557676.1875 7133248 399.80581665 557159.5625 7134136 383.93054199
          557181.875 7134141 383.85583496 557173.25 7134117 383.95004272
          557005.6875 7133846.5 401.54495239 556976.1875 7133849 407.00967407
          556993.8125 7133866 403.79782104 557246.9375 7134044.5 383.94284058
          557226.3125 7134048.5 383.93890381 557247.625 7134061 383.94714355
          556869.875 7133458.5 430.12506104 556857.5 7133482 430.75830078
          556880.8125 7133479 429.79263306 557763.0625 7133910.5 430.00195312
          557737.9375 7133910.5 429.99975586 557753.875 7133925.5 430.00314331
          557283.875 7133501 362.47750854 557287.3125 7133521.5 356.45333862
          557311.0625 7133501.5 366.60122681 557376.8125 7133171.5 380.17132568
          557362.9375 7133198.5 380.06930542 557392.625 7133195.5 380.09564209
          557046 7134150 389.72427368 557061.625 7134150 386.26794434
          557062.0625 7134138 386.1739502 557346.3125 7134109 387.17184448
          557350.5 7134079.5 387.78585815 557230.6875 7133898.5 381.7875061
          557240.5 7133925 382.82489014 557260.3125 7133896 381.42150879
          557256 7133312.5 379.75061035 557233.125 7133333 375.86004639
          557254.8125 7133338 376.743927 557106.125 7133799 383.66644287
          557094.4375 7133819 384.17074585 557120.375 7133820.5 382.70123291
          557266.5 7133998.5 383.9553833 557267.125 7134023.5 383.93228149
          557288.625 7134011 383.91461182 557698.125 7133221 398.33630371
          557084.0625 7133747 385.53744507 557115.8125 7133751.5 381.70074463
          557105.0625 7133724.5 382.78436279 557704.625 7133518 416.60684204
          557723.5625 7133533.5 419.33468628 557536.0625 7133150 384.70114136
          557514.375 7133150 384.16937256 557529.25 7133171.5 385.46191406
          557164.625 7134093 383.94854736 557186.625 7134097 383.94155884
          557702.3125 7133592 422.24032593 557682.3125 7133567 420.29544067
          557675.125 7133591 420.61807251 557692.0625 7133201.5 397.16644287
          557714.8125 7133197.5 399.22946167 557708.75 7133178 396.84204102
          557068 7133458 375.49801636 557074.3125 7133433.5 370.98883057
          557048.8125 7133432 381.99752808 557395.375 7133639 378.36709595
          557374.6875 7133651 372.74572754 557393.8125 7133669 378.91943359
          557600.5625 7133832 425.88232422 557620.9375 7133852.5 428.34234619
          557620.8125 7133821.5 427.05328369 557542 7133938 415.41894531
          557522.0625 7133919 412.05310059 557521.3125 7133949.5 411.95367432
          557397.875 7133523 381.55758667 557399 7133495.5 383.30612183
          557368.0625 7133512.5 379.07339478 557512 7133654.5 397.05349731
          557501.875 7133675.5 395.7694397 557529.3125 7133676 401.81799316
          557662.625 7133455.5 411.4067688 557638.0625 7133478 411.05764771
          556889.3125 7133220.5 411.96343994 556918.6875 7133217 411.93008423
          556904.375 7133194 413.13574219 557154.1875 7133412 363.03964233
          557164.875 7133387.5 370.12915039 557139.5 7133387 372.21234131
          557600.4375 7133800.5 423.95803833 557571.125 7133796.5 416.6882019
          557573.25 7133823 419.99526978 557115.4375 7133555 362.91339111
          557117.625 7133580.5 366.16802979 557133.875 7133572.5 360.62176514
          557800 7133891 429.99801636 557797.625 7133894.5 429.99926758
          557800 7133879.5 429.99560547 557443.375 7133795.5 383.62179565
          557450.3125 7133825.5 383.79144287 557471.25 7133805 389.55273438
          557027.0625 7133223 393.55380249 557009.875 7133214.5 398.13748169
          557289.375 7133570.5 352.75808716 557319.125 7133581 364.44250488
          557320.5625 7133552.5 363.50457764 557025.0625 7133603.5 394.42843628
          557036.0625 7133631.5 392.34017944 557051.6875 7133604 388.62683105
          557124.8125 7133799 382.36532593 557301.125 7133421.5 375.71783447
          557327.0625 7133412 381.69476318 557318.3125 7133398 380.99591064
          557282 7133213 383.68902588 557303.125 7133191 383.13284302
          557281.625 7133186.5 383.53710938 557641.1875 7133842 429.37091064
          557643 7133868.5 430.30599976 557668.75 7133844 430.00463867
          557289.25 7134036 383.85964966 557315.375 7134011 383.85501099
          557070.5625 7134065.5 387.9152832 557045.125 7134066 391.67642212
          556900.875 7133602.5 426.1026001 556868.125 7133603 429.63265991
          557250.375 7133951.5 383.20440674 557205.625 7134052 383.93960571
          557172.75 7134043.5 383.94494629 557290 7133893 379.6178894
          557318.625 7133901.5 380.27011108 557317.875 7133870.5 374.76324463
          557027.5625 7133706 395.29428101 557026.375 7133680.5 395.34640503
          557083.5 7133890 389.10455322 557117.1875 7133896.5 383.75274658
          557109.0625 7133865.5 384.5826416 557180.875 7133193.5 383.73123169
          557188.6875 7133170 380.33712769 557163.4375 7133169 380.93859863
          556982.5625 7133739.5 406.16915894 556963.9375 7133722.5 407.53570557
          557087.125 7133168 384.79541016 557105.25 7133192 383.94213867
          557190 7133242.5 381.08129883 557255.3125 7133267.5 381.93121338
          557268.625 7133240 382.2789917 557239.4375 7133243.5 383.61911011
          557546 7133845 413.18588257 557543.9375 7133819 412.74765015
          556893.6875 7134150 411.5206604 556833.1875 7133888.5 431.12731934
          556843.9375 7133915.5 430.83312988 556864.75 7133895 430.76242065
          557798.0625 7133539.5 423.76748657 556800 7133978.5 430.62573242
          556803.5 7133986 430.42010498 556814.4375 7133966 430.80374146
          556800 7133963.5 430.98977661 557601.625 7133718.5 418.24508667
          557623.9375 7133734.5 424.05630493 557738.1875 7133710 427.18789673
          557123.875 7133435.5 364.42504883 557150.1875 7133362.5 378.21234131
          557241.1875 7133652.5 368.82748413 557219.1875 7133632 359.63327026
          557217.0625 7133653 360.56329346 557417.4375 7134109.5 394.13790894
          557426.25 7134142.5 394.90255737 557713.8125 7133466 414.59020996
          557592.625 7133601 411.88809204 557575.4375 7133623 409.11911011
          557600 7133630.5 413.64263916 557744.6875 7133941 430.00299072
          557728.125 7133949 429.98947144 557572.25 7133294.5 395.98461914
          557562.625 7133268.5 393.51895142 557541.875 7133296.5 392.77090454
          557300.625 7133919.5 383.35140991 557270.1875 7133922.5 382.84365845
          557280.8125 7133948.5 382.50656128 557732.75 7133245 404.90789795
          557726.875 7133224.5 402.09509277 557704 7133241.5 401.30938721
          557401.8125 7133726.5 380.44989014 557372.125 7133728.5 367.38735962
          557381.625 7133756 374.36328125 556931.1875 7133464.5 421.23965454
          556911.4375 7133482.5 426.35247803 556928.9375 7133489.5 422.45593262
          556953 7133989 406.78253174 556965 7134014 404.74795532
          556980.625 7133990.5 402.92248535 557668.875 7133617 421.35308838
          557650.875 7133634 421.36877441 557677.125 7133632.5 422.92242432
          557290.8125 7133542 355.53033447 557265.5 7133532.5 354.39733887
          557265.6875 7133556.5 361.76626587 557103.625 7133653 378.9670105
          557129.375 7133653 373.19229126 557119.875 7133625.5 372.17315674
          557131.6875 7133547 356.68258667 557139.8125 7134035 383.80737305
          557164.1875 7134012.5 383.94213867 556846.1875 7133263 415.88684082
          556831.3125 7133286.5 422.35888672 556855.0625 7133287 416.03649902
          557093.4375 7133459.5 365.81298828 557116.3125 7133483.5 360.39981079
          557118.1875 7133460 361.66201782 557241.625 7133878.5 378.98635864
          557226.1875 7133858 377.08453369 557215.25 7133878 380.42428589
          557287.4375 7133150 380.95022583 557274.25 7133150 382.56274414
          557281.25 7133160.5 381.43994141 556845.6875 7133186 417.01217651
          556845.3125 7133160 419.15753174 556823.75 7133182 420.75973511
          556829.625 7134150 417.7701416 556845.4375 7134150 414.92767334
          556824.875 7134137.5 419.95855713 557505.4375 7133517 395.43560791
          557500.1875 7133546 394.38052368 557526.8125 7133539 399.76986694
          556989.9375 7133457 401.74246216 557008.1875 7133481.5 398.02667236
          557016.25 7133456.5 395.46362305 557231.125 7133267.5 381.70825195
          557742 7133986 430.00134277 557743.375 7133963.5 430.00213623
          557726.8125 7133972 429.99575806 557275 7133470 367.63632202
          557292.875 7133485 365.09091187 557206.875 7133267 381.51815796
          557642.625 7133618.5 419.75701904 557617.625 7133609.5 416.13616943
          557625 7133639.5 418.26925659 557670.5625 7133870.5 430.19812012
          557739.5 7133327 410.72888184 557743.75 7133306 409.77246094
          557716.375 7133320 408.17855835 556880.625 7133359.5 417.21286011
          556860.3125 7133381.5 425.89221191 556890.25 7133385 420.12850952
          557664.25 7133802.5 429.17398071 557683.0625 7133803.5 429.41534424