<?xml version="1.0"?>
<VTKFile type="UnstructuredGrid" version="0.1" byte_order="LittleEndian" header_type="UInt32">
  <UnstructuredGrid>
    <Piece NumberOfPoints="12017" NumberOfCells="3">
      <PointData>
      </PointData>
      <CellData>
        <DataArray type="Int64" Name="GeoType" format="ascii" RangeMin="1" RangeMax="3">
          1 2 3
        </DataArray>
      </CellData>
      <Points>
        <DataArray type="Float64" Name="Points" NumberOfComponents="3" format="ascii" RangeMin="7155126.4761" RangeMax="7155634.5116">
          557334.92529 7133524.0637 365.11599731 557331.96484 7133533.0137 365.11264038
          557326.04248 7133526.2766 363.80444336 557266.52832 7133417.3853 324.94525146
          557263.38135 7133418.6621 315.82037354 557273.38135 7133421.5737 319.78421021
          557379.23633 7133635.9753 379.14205933 557366.89209 7133635.0786 377.25845337
          557374.33789 7133625.3655 377.39633179 557340.56396 7133531.2166 366.37936401
          557336.64746 7133541.7961 366.70999146 557400.64941 7133602.8804 313.90615845
          557404.09375 7133599.2891 315.90447998 557399.56982 7133596.2961 308.94458008
          557382.17822 7133732.4368 373.34075928 557389.23682 7133727.1187 376.96578979
          557390.42188 7133735.8169 378.0826416 557373.69873 7133686.5881 343.02108765
          557376.97021 7133681.835 337.81854248 557370.99902 7133682.8169 343.18783569
          557317.83008 7133678.4099 342.13314819 557315.68018 7133681.6436 342.33343506
          557319.50049 7133681.2397 342.39038086 557426.81396 7133595.3772 395.29043579
          557427.79346 7133586.5369 390.60696411 557435.11377 7133591.7642 396.29309082
          557211.25977 7133598.1357 93.880119324 557209.22607 7133603.6697 114.36813354
          557220.97021 7133606.7856 100.70820618 557157.81836 7133544.1707 331.28295898
          557159.09229 7133553.4814 330.35321045 557158.92773 7133549.9717 320.17456055
          557209.41455 7133416.1113 352.22906494 557210.80811 7133413.291 340.96063232
          557215.97119 7133413.7175 349.02612305 557364.87012 7133560.6658 280.24630737
          557366.46094 7133559.7024 288.33105469 557358.33105 7133554.5332 289.91217041
          557442.08789 7133706.4312 343.60961914 557438.52783 7133709.3386 343.54226685
          557442.75049 7133710.3718 343.48718262 557189.63379 7133581.5227 132.45996094
          557193.73633 7133589.1543 124.836586 557191.93262 7133577.7576 123.6476059
          557273.90674 7133732.0942 357.99554443 557276.59131 7133726.9097 355.81655884
          557269.60059 7133727.9194 358.01101685 557204.18945 7133486.5632 93.814308167
          557186.85742 7133496.23 99.337715149 557198.86328 7133503.0933 89.753974915
          557472.43115 7133627.4448 343.00350952 557473.39941 7133631.9861 342.26623535
          557477.71387 7133628.5671 343.04315186 557123.84375 7133464.0879 332.82473755
          557127.01514 7133456.2888 333.69244385 557123.39844 7133460.9656 343.07907104
          557242.20557 7133585.4519 20.696966171 557242.1001 7133577.9604 14.654262543
          557231.8623 7133582.8081 17.136837006 557399.18896 7133588.564 289.54577637
          557391.44922 7133590.1848 287.61303711 557395.15527 7133593.251 298.55270386
          557247.71729 7133419.677 271.97732544 557256.69531 7133423.6418 269.77017212
          557260.39893 7133423.928 279.9458313 557403.69873 7133598.9775 164.57771301
          557400.31299 7133596.7659 165.46946716 557402.62451 7133601.073 163.46072388
          557267.85645 7133749.8154 371.5859375 557269.88672 7133747.7878 373.97192383
          557271.48633 7133751.2527 371.10876465 557498.50391 7133714.3486 388.85272217
          557493.0498 7133716.6047 385.61157227 557492.72314 7133712.4343 383.0824585
          557436.83105 7133661.8596 337.4359436 557431.98486 7133664.0896 341.59188843
          557434.77539 7133668.0991 342.40270996 557344.12207 7133596.4709 130.63311768
          557348.11768 7133602.9009 137.65242004 557344.41943 7133592.5037 139.72413635
          557487.86816 7133664.8794 357.793396 557482.35156 7133666.6621 352.02554321
          557486.31152 7133671.4436 357.8742981 557478.18896 7133701.8203 368.13995361
          557479.17822 7133697.1406 365.39602661 557474.15332 7133699.8472 363.68215942
          557169.69287 7133568.4485 181.95689392 557162.05713 7133554.6868 184.48678589
          557163.75684 7133560.8135 193.10540771 557332.0918 7133617.6741 376.01025391
          557339.1333 7133617.4863 375.86877441 557334.18506 7133623.9644 377.52081299
          557411.86963 7133556.9517 329.88278198 557409.52441 7133559.3374 322.50552368
          557419.28467 7133560.0789 325.12509155 557293.21533 7133423.2297 309.38201904
          557295.229 7133421.9485 315.18759155 557292.85596 7133420.9954 313.58102417
          557461.90771 7133601.6021 332.73492432 557466.86182 7133599.8933 338.12930298
          557462.55566 7133595.989 333.20391846 557376.02393 7133608.9309 174.95767212
          557379.39453 7133602.8052 171.15118408 557374.38867 7133602.3118 177.71391296
          557397.69629 7133622.8408 381.02670288 557390.39111 7133624.7966 380.30490112
          557392.56055 7133618.5449 380.64654541 557342.24121 7133494.1406 341.36062622
          557341.23975 7133504.4453 334.54232788 557344.00391 7133502.4551 344.94464111
          557478.62939 7133569.3147 392.33627319 557475.67285 7133565.6243 398.29727173
          557476.25488 7133563.168 394.04312134 557440.03955 7133739.6729 352.6121521
          557442.51074 7133737.7197 352.58352661 557439.46143 7133736.9902 352.67181396
          557265.93896 7133746.8828 372.86230469 557462.43066 7133729.2141 365.80889893
          557461.16895 7133726.0371 362.97796631 557459.48389 7133730.3926 362.22073364
          557349.46191 7133695.6123 369.1338501 557342.1792 7133692.2065 369.46011353
          557348.64893 7133688.2085 369.46221924 557354.11426 7133748.8596 361.76062012
          557358.94531 7133753.0903 362.31546021 557360.81592 7133746.6917 362.03097534
          557331.30225 7133650.5947 273.94119263 557325.91602 7133649.217 271.48364258
          557330.19531 7133654.7888 271.02786255 557182.59229 7133431.8162 291.54864502
          557188.32324 7133430.7268 287.69952393 557188.26123 7133428.1304 299.79040527
          557505.0293 7133667.4978 385.96929932 557493.91211 7133670.0156 383.17086792
          557498.41113 7133659.2429 384.58816528 557399.35596 7133685.8308 381.34454346
          557392.90869 7133683.1655 379.73681641 557399.49805 7133679.7234 381.77227783
          557141.28564 7133526.8787 337.74331665 557148.71387 7133532.1504 328.47290039
          557139.71289 7133527.0281 324.29678345 557455.58545 7133668.9609 383.22967529
          557447.26465 7133666.8938 384.36489868 557451.97021 7133660.4551 384.73776245
          557337.27148 7133634.2759 265.55737305 557340.09717 7133630.9041 259.64328003
          557332.68408 7133633.9885 259.25579834 557352.05957 7133662.0518 296.89837646
          557346.59277 7133668.9951 292.65545654 557347.52344 7133670.5051 301.01699829
          557237.00049 7133407.5562 319.42221069 557239.10742 7133406.3289 328.29794312
          557231.74707 7133404.2378 322.41888428 557315.34229 7133439.5852 344.19238281
          557311.979 7133439.3633 335.39730835 557317.46191 7133445.1829 336.29196167
          557177.50879 7133525.6997 360.89349365 557188.2876 7133530.1003 360.73504639
          557177.04688 7133534.792 360.6288147 557499.08691 7133606.3835 395.634552
          557502.99854 7133609.8652 393.80325317 557495.12012 7133611.135 396.65914917
          557256.12305 7133634.9839 194.33479309 557251.56982 7133631.5591 180.76124573
          557247.13232 7133628.4683 197.91322327 557395.1543 7133754.5659 363.9637146
          557384.76611 7133757.1697 364.04037476 557390.14746 7133761.5442 366.2902832
          557362.8501 7133717.7051 351.9083252 557363.44238 7133721.0125 352.57067871
          557366.24805 7133718.6108 352.74789429 557380.19531 7133616.1743 280.53613281
          557377.43896 7133607.9387 279.09176636 557375.38867 7133616.5576 273.96612549
          557484.58643 7133642.5667 387.12509155 557477.90918 7133648.6211 386.04281616
          557475.16162 7133642.4629 388.71731567 557266.77148 7133426.0762 373.29962158
          557258.21484 7133424.1677 371.41229248 557265.9502 7133415.3918 372.87527466
          557484.64746 7133761.2996 382.89761353 557488.91064 7133762.74 387.76608276
          557488.21143 7133757.7388 382.50805664 557332.16602 7133740.2593 362.13586426
          557336.51416 7133737.7368 362.19445801 557331.78516 7133735.313 362.37365723
          557293.67334 7133704.4756 352.08200073 557289.8252 7133703.259 352.68310547
          557289.85352 7133707.2668 352.71694946 557315.93311 7133742.4116 361.35961914
          557310.82471 7133742.4705 359.61080933 557314.15625 7133746.314 361.28314209
          557186.8501 7133615.7783 248.69868469 557183.95898 7133614.8242 255.5227356
          557191.22412 7133620.7224 254.14723206 557426.54199 7133659.4128 339.62634277
          557427.854 7133663.2454 342.83441162 557431.2417 7133660.439 339.1072998
          557439.00586 7133751.3975 353.78726196 557441.49023 7133753.634 357.06750488
          557442.66797 7133750.2896 353.92648315 557371.98096 7133691.4441 346.02111816
          557368.44385 7133687.759 347.5135498 557365.7749 7133693.9998 350.84143066
          557181.50732 7133410.374 331.33502197 557190.43604 7133409.7253 327.44796753
          557186.07812 7133411.9661 344.8951416 557122.82227 7133465.0957 349.04309082
          557124.37354 7133470.2207 350.93203735 557122.44287 7133470.8599 341.37316895
          557147.125 7133459.0891 165.51564026 557148.90186 7133454.4619 181.34799194
          557143.75977 7133462.9939 178.39195251 557165.64209 7133460.1597 363.43411255
          557157.4375 7133454.6836 364.20166016 557164.72949 7133449.0637 365.35519409
          557330.12646 7133659.6382 372.25183105 557337.85596 7133657.4175 372.6506958
          557335.18604 7133663.8301 370.91305542 557391.13428 7133599.1042 201.68856812
          557389.44971 7133596.7756 188.95037842 557398.12744 7133597.123 195.32206726
          557202.46924 7133609.0637 149.78468323 557203.46533 7133613.8909 168.31889343
          557214.94336 7133618.1145 159.97389221 557259.09473 7133545.7 361.26199341
          557252.56543 7133544.0415 361.18826294 557257.52051 7133538.2441 360.30105591
          557273.70557 7133590.8684 363.38449097 557264.83545 7133591.4927 363.70126343
          557267.2832 7133582.6199 363.52142334 557289.83936 7133699.2056 352.09158325
          557286.06689 7133702.0439 352.82110596 557262.37842 7133671.3296 364.11538696
          557268.13037 7133663.8884 364.57138062 557271.39502 7133670.1877 364.82626343
          557288.75977 7133716.8772 369.25161743 557287.20703 7133705.0088 368.00997925
          557296.66504 7133708.5212 369.30685425 557512.24072 7133626.0161 388.03030396
          557512.08643 7133622.5049 388.97906494 557511.44434 7133621.4297 386.947052
          557503.01611 7133723.1924 373.59921265 557508.83008 7133725.2134 377.54858398
          557507.61963 7133719.4802 374.5317688 557165.7583 7133538.4116 152.4161377
          557161.15137 7133539.9626 160.18563843 557168.17578 7133541.3828 158.66505432
          557407.18359 7133588.4001 291.35601807 557403.96777 7133585.3352 281.2800293
          557445.09229 7133634.9309 327.03295898 557449.61279 7133635.9309 329.25515747
          557447.89795 7133631.8867 327.26858521 557351.8457 7133696.3167 352.13601685
          557351.34473 7133700.0618 352.03024292 557355.54297 7133698.2598 352.2616272
          557369.93066 7133559.1992 298.06549072 557367.47852 7133556.6155 310.67434692
          557361.74365 7133554.2478 304.03894043 557330.46484 7133758.5581 363.32843018
          557333.03857 7133759.0103 364.65551758 557333.04688 7133757.7959 362.60284424
          557239.46191 7133655.0229 329.74807739 557241.54443 7133667.8655 332.4510498
          557244.95654 7133657.5876 321.68185425 557370.37939 7133643.46 284.92233276
          557364.5166 7133641.55 287.43106079 557368.63281 7133644.6194 291.04962158
          557426.76318 7133551.719 351.95697021 557419.12891 7133552.0605 351.56826782
          557425.1748 7133553.7883 343.85336304 557348.47461 7133665.3423 289.84249878
          557346.90332 7133663.9585 285.99905396 557345.16699 7133667.77 286.26873779
          557464.80127 7133619.3406 339.88375854 557465.01758 7133614.3796 340.16241455
          557461.2373 7133617.2249 335.25805664 557260.01221 7133683.4712 333.96560669
          557264.61084 7133682.9265 335.38482666 557261.71387 7133679.3899 334.86468506
          557130.82422 7133501.7759 278.03070068 557131.93115 7133511.0671 285.30929565
          557132.09863 7133509.6106 268.58016968 557305.53516 7133645.3015 271.18377686
          557316.10742 7133651.2114 273.7762146 557318.19629 7133644.1399 267.41064453
          557351.96533 7133710.0281 351.88928223 557348.76416 7133711.1785 351.82800293
          557351.16064 7133713.5493 351.77523804 557505.46582 7133696.0916 374.01315308
          557499.24512 7133698.9282 372.32003784 557506.40918 7133704.5608 374.15066528
          557476.77197 7133667.1069 345.27548218 557471.55225 7133666.4614 338.93261719
          557473.33691 7133672.8318 343.83227539 557351.05566 7133757.6316 364.75140381
          557347.6665 7133758.6047 365.65481567 557350.07129 7133758.5916 367.67233276
          557342.2583 7133536.605 289.006073 557338.44238 7133537.6721 274.98754883
          557347.02979 7133547.0076 276.37826538 557249.83789 7133711.7502 365.46203613
          557249.5459 7133701.5923 365.2048645 557257.44482 7133710.7192 366.40576172
          557481.53271 7133715.6855 369.54071045 557487.46387 7133717.0168 370.08435059
          557484.60498 7133710.4644 370.54327393 557402.01172 7133596.646 170.02258301
          557403.29443 7133597.8215 165.93389893 557404.94531 7133600.0029 166.90672302
          557300.14648 7133727.5303 351.90734863 557302.22217 7133724.625 350.02774048
          557298.50293 7133723.6287 351.81759644 557164.2959 7133551.0034 175.40489197
          557162.40332 7133545.7808 171.88684082 557157.1499 7133545.4905 178.63601685
          557357.31689 7133727.7771 356.89953613 557357.95557 7133724.4055 354.15951538
          557354.77734 7133725.1694 356.31304932 557446.11621 7133559.6086 342.77841187
          557451.60107 7133562.5076 344.10296631 557447.63574 7133556.2969 349.11877441
          557473.67676 7133558.8174 391.36798096 557473.78369 7133559.9878 397.06576538
          557217.79443 7133586.0378 360.63693237 557221.64502 7133593.2466 362.52798462
          557215.5835 7133593.9548 364.51516724 557332.63135 7133555.4026 148.72239685
          557330.6167 7133554.126 140.64450073 557333.6875 7133560.877 141.16932678
          557355.83105 7133755.5525 362.82778931 557359.15674 7133757.3269 364.03436279
          557302.69287 7133714.9272 369.68353271 557300.77979 7133723.3369 370.11547852
          557296.57129 7133717.6033 369.69326782 557342.42773 7133730.7197 362.29153442
          557339.74512 7133734.2837 362.30575562 557344.09033 7133734.7073 362.25845337
          557211.34229 7133522.3049 361.17910767 557219.31592 7133523.7495 361.00488281
          557211.99414 7133530.614 360.71365356 557259.81592 7133433.6611 371.50506592
          557253.24854 7133439.9592 369.2053833 557252.11963 7133432.3645 369.89111328
          557430.24414 7133707.2708 343.63485718 557429.47559 7133703.2102 344.02688599
          557426.20801 7133706.2817 344.08389282 557297.96094 7133730.7971 352.54403687
          557296.14307 7133726.4683 352.44488525 557293.43066 7133729.8086 352.45397949
          557243.86426 7133696.1431 352.07052612 557245.06348 7133695.9626 344.81365967
          557243.51367 7133691.5857 346.06231689 557279.55859 7133506.042 365.7883606
          557286.64209 7133511.009 364.47601318 557278.14795 7133514.0576 362.85336304
          557159.64795 7133576.5708 330.58862305 557160.49414 7133590.0845 338.67800903
          557161.60791 7133591.2603 328.09243774 557382.8418 7133556.948 322.44363403
          557383.44873 7133555.0081 332.04232788 557375.13525 7133555.2993 327.18878174
          557397.17725 7133600.5576 163.95321655 557401.87305 7133605.2778 163.04908752
          557473.60254 7133614.2949 346.19586182 557474.34473 7133610.2737 347.18408203
          557469.33984 7133612.041 344.33206177 557444.23193 7133631.1985 398.22180176
          557450.27148 7133638.158 392.89245605 557438.82959 7133640.7056 391.38189697
          557363.44775 7133687.7551 351.02261353 557366.16699 7133682.9204 347.86239624
          557361.77148 7133682.3052 351.0519104 557330.20068 7133626.3547 122.00357819
          557320.104 7133633.7058 135.23609924 557335.11523 7133625.3662 138.08679199
          557325.94189 7133533.8484 229.12750244 557323.62549 7133534.7273 217.89256287
          557331.521 7133542.2334 224.59986877 557348.53516 7133595.8667 370.10119629
          557345.56396 7133601.2166 370.7673645 557342.01758 7133595.3792 372.84881592
          557184.53809 7133612.5457 368.95831299 557177.04492 7133607.5356 371.1239624
          557185.31299 7133604.3491 368.23080444 557124.80664 7133467.2546 323.58203125
          557126.40625 7133460.3486 324.76538086 557491.08936 7133682.8787 365.20196533
          557488.09912 7133680.4651 362.28887939 557487.04199 7133685.5371 363.37670898
          557456.85791 7133760.7915 370.82653809 557459.6582 7133761.1643 373.01638794
          557459.03125 7133759.4187 369.69784546 557366.72998 7133650.2378 307.38272095
          557370.56494 7133652.1401 314.81747437 557375.32031 7133651.4138 309.80877686
          557297.02344 7133418.3367 374.64529419 557292.92139 7133420.3691 376.02755737
          557293.23096 7133414.6843 372.34301758 557496.93652 7133596.0513 375.6696167
          557493.01953 7133594.9653 367.98150635 557496.90674 7133600.3367 371.89144897
          557451.29541 7133688.2593 345.62033081 557452.63135 7133692.9233 345.62408447
          557456.48633 7133689.425 344.15625 557204.67773 7133462.3086 109.49913788
          557216.06348 7133470.4836 97.464889526 557216.80273 7133458.259 108.184021
          557472.78369 7133590.3237 347.52075195 557474.89795 7133596.7632 345.80657959
          557477.91602 7133595.0015 350.49484253 557269.44238 7133636.3455 87.002738953
          557277.98096 7133637.0496 84.675506592 557272.59082 7133631.3069 76.526748657
          557359.95361 7133691.7478 352.27502441 557359.99902 7133696.4529 352.20654297
          557319.87402 7133676.627 341.36679077 557317.23291 7133675.72 339.58041382
          557301.30225 7133645.8154 101.99153137 557306.19922 7133640.6348 97.322349548
          557301.35742 7133642.0325 94.172348022 557452.60449 7133757.6729 392.12579346
          557448.66113 7133753.3491 391.68829346 557455.17139 7133752.845 392.77355957
          557464.94678 7133756.3286 371.69549561 557461.87891 7133759.053 371.29553223
          557464.3335 7133760.0776 373.60461426 557468.04492 7133761.9241 394.69528198
          557464.30664 7133760.3376 398.95935059 557470.83105 7133762.4194 400.17193604
          557182.21729 7133411.4265 318.31951904 557180.48779 7133410.0227 322.6307373
          557177.04883 7133412.5117 318.75765991 557263.61035 7133427.4788 267.66430664
          557342.11768 7133670.5127 288.77825928 557342.10303 7133672.8777 296.21237183
          557427.64893 7133549.7366 366.97229004 557423.57275 7133550.561 359.63540649
          557434.21973 7133550.8027 358.27035522 557134.97266 7133457.2163 268.79577637
          557139.6499 7133449.407 265.95944214 557139.27441 7133447.988 278.70184326
          557276.47119 7133521.9426 360.38156128 557283.32959 7133526.7163 359.70904541
          557274.17725 7133530.8906 359.07409668 557457.94434 7133747.8093 391.7208252
          557460.20654 7133743.4404 390.5244751 557461.9624 7133747.1001 393.4498291
          557309.77051 7133685.5715 342.27407837 557313.8418 7133685.2622 342.17941284
          557311.82861 7133681.7354 342.46234131 557333.79199 7133640.438 378.00265503
          557337.39648 7133636.3608 378.44113159 557340.01904 7133642.8503 377.10162354
          557438.42676 7133686.9302 384.51397705 557431.59717 7133692.8352 384.35653687
          557429.89551 7133684.6233 385.6048584 557354.53076 7133743.4717 361.97283936
          557349 7133745.8154 361.86538696 557224.7373 7133549.6553 359.6222229
          557221.57861 7133555.9849 358.19052124 557218.271 7133551.6472 358.65481567
          557272.54639 7133614.0942 363.26461792 557275.33301 7133606.4661 363.55184937
          557279.5 7133614.3396 363.51516724 557393.60693 7133554.9617 377.82226562
          557399.86279 7133556.5874 379.46231079 557396.69873 7133561.6492 379.13006592
          557359.37158 7133632.5798 271.36245728 557366.91846 7133636.345 271.22781372
          557363.54736 7133635.97 263.88656616 557297.51025 7133705.875 350.13327026
          557294.06934 7133708.4519 352.04516602 557447.646 7133691.5017 346.73846436
          557444.13135 7133694.811 346.12969971 557448.75098 7133696.2073 345.64660645
          557329.82324 7133671.5051 309.06365967 557329.41943 7133672.8767 317.84851074
          557333.9502 7133673.6716 312.98199463 557183.40771 7133512.564 96.671180725
          557292.99414 7133480.2273 200.13867188 557295.62402 7133483.0093 206.17544556
          557293.96875 7133476.707 206.98638916 557366.46094 7133598.6272 367.29641724
          557363.77002 7133603.4045 367.91207886 557360.60303 7133598.0779 366.48059082
          557337.5249 7133514.7969 365.26654053 557345.40771 7133512.9089 364.89221191
          557343.4751 7133521.8298 366.25521851 557444.98145 7133581.6335 321.1880188
          557445.88818 7133585.6431 320.99395752 557448.91211 7133584.5325 324.19369507
          557271.44531 7133434.2629 253.20993042 557275.64453 7133439.6738 234.11676025
          557289.41455 7133446.4661 241.38032532 557489.07422 7133691.4695 384.38845825
          557497.08936 7133689.5432 386.23599243 557495.18506 7133699.2312 387.25396729
          557223.90869 7133484.561 83.861968994 557343.104 7133662.5061 371.23684692
          557346.40869 7133655.3069 373.01651001 557351.29199 7133661.7434 371.80740356
          557458.30225 7133733.9392 361.87246704 557461.6665 7133732.2136 365.95446777
          557322.8584 7133641.0386 376.20162964 557328.47607 7133640.8372 377.63723755
          557325.21094 7133644.8076 376.98196411 557492.22266 7133762.9292 391.78311157
          557495.80566 7133758.0413 391.64627075 557492.7666 7133758.5327 387.6668396
          557507.80371 7133614.3577 391.20407104 557506.77295 7133611.8149 391.73468018
          557508.86328 7133612.5305 389.94366455 557281.22949 7133709.6785 352.81838989
          557277.22021 7133708.0769 353.0447998 557275.77002 7133713.7048 353.68490601
          557278.74609 7133650.8442 366.66082764 557271.82812 7133650.3914 364.59295654
          557277.13477 7133643.646 364.55148315 557265.16602 7133408.3079 357.39715576
          557260.72266 7133410.5239 345.66934204 557270.33398 7133412.468 345.17709351
          557347.0249 7133724.4563 359.515625 557349.28809 7133722.2551 356.59838867
          557346.24951 7133721.3367 357.00192261 557184.97314 7133414.5989 317.79553223
          557180.36963 7133415.4231 318.10842896 557359.56348 7133615.1189 179.84741211
          557353.89111 7133611.4399 184.80619812 557355.3457 7133614.8826 174.65341187
          557299.96338 7133640.906 199.34361267 557298.54492 7133637.5405 222.62457275
          557312.11377 7133635.6509 215.80044556 557456.46924 7133551.1851 377.05978394
          557456.61182 7133552.2222 369.9223938 557460.38818 7133552.5852 375.15982056
          557485.30225 7133663.2673 381.9135437 557489.80664 7133658.3145 382.99591064
          557490.46777 7133663.6494 382.69586182 557132.3208 7133463.1958 280.9156189
          557133.1792 7133468.5125 270.32485962 557228.08105 7133629.9934 269.33691406
          557231.05566 7133630.8005 278.60772705 557242.24951 7133633.9248 275.32546997
          557383.79199 7133694.667 375.51602173 557376.41797 7133690.4639 373.37585449
          557384.98291 7133686.9446 376.72598267 557375.03613 7133639.7981 274.58468628
          557371.01855 7133641.5684 279.73815918 557374.8208 7133644.5647 281.09118652
          557442.82617 7133608.6909 407.98529053 557442.18115 7133611.8828 407.80441284
          557439.7749 7133609.2346 407.10891724 557271.99023 7133709.9849 353.7171936
          557274.19824 7133705.436 353.11682129 557427.91406 7133652.0269 386.62902832
          557422.41846 7133658.4751 385.98117065 557418.43213 7133648.4683 386.35101318
          557339.49902 7133470.8853 342.79202271 557334.91455 7133475.8518 332.90933228
          557341.63281 7133481.5217 342.26135254 557306.97949 7133545.6362 363.58712769
          557314.40625 7133542.9009 364.1428833 557313.07129 7133550.5547 366.90213013
          557326.29736 7133443.4839 362.48513794 557318.47168 7133437.4009 356.91342163
          557325.19385 7133446.9663 349.81912231 557325.27002 7133454.0054 334.39477539
          557398.76025 7133566.623 299.3052063 557394.19336 7133563.1082 303.54229736
          557392.85693 7133565.4478 296.87426758 557390.74756 7133707.7546 338.32824707
          557386.29248 7133706.375 338.74700928 557386.95996 7133710.5901 342.91455078
          557397.03906 7133607.9651 308.47094727 557402.94141 7133609.592 314.4909668
          557244.01611 7133402.0872 357.54528809 557241.96777 7133403.2842 347.34161377
          557251.06201 7133407.1533 347.97943115 557340.0332 7133505.3845 365.57266235
          557343.22705 7133495.6697 367.72344971 557347.03125 7133503.3916 361.17471313
          557366.87158 7133554.1797 322.31552124 557373.69141 7133557.3359 316.18869019
          557372.77881 7133717.2036 353.82263184 557369.86475 7133719.8181 354.54498291
          557373.59766 7133721.2683 356.32571411 557425.33398 7133620.8601 396.17791748
          557417.29395 7133624.1165 388.92663574 557418.82959 7133615.3289 391.93850708
          557470.46631 7133596.9587 407.02929688 557472.29102 7133603.5881 405.90036011
          557464.13428 7133599.4333 407.69216919 557437.71484 7133727.512 350.4934082
          557441.40771 7133728.3821 350.30871582 557440.89893 7133724.8484 348.13909912
          557137.85596 7133464.7556 229.84805298 557138.27246 7133469.6262 217.96977234
          557140.92627 7133456.9812 218.66477966 557475.31055 7133606.1841 346.95230103
          557480.11084 7133604.9844 348.87545776 557475.70654 7133601.8325 346.10559082
          557467.03369 7133567.3767 358.22964478 557462.30811 7133566.0847 353.09094238
          557468.63721 7133574.3262 354.90988159 557247.33887 7133487.0374 361.128479
          557240.15674 7133484.3564 362.22225952 557247.53076 7133478.0344 363.7911377
          557396.36621 7133686.0898 334.1114502 557392.82471 7133684.5481 333.64660645
          557393.0708 7133688.3662 333.79464722 557248.00586 7133719.1287 361.62521362
          557249.73877 7133722.9272 361.93710327 557251.5376 7133721.5618 358.95306396
          557313.46729 7133541.998 152.63194275 557310.06396 7133541.0803 141.31686401
          557318.50195 7133545.5261 144.78817749 557297.22217 7133649.0371 107.21338654
          557297.08984 7133647.439 102.7537384 557364.00928 7133626.865 201.65242004
          557366.58838 7133626.2651 200.4460144 557363.19922 7133626.2461 199.15042114
          557341.53027 7133685.2754 343.37091064 557340.18701 7133687.5676 345.67974854
          557343.40186 7133685.9751 346.28353882 557349.45752 7133724.824 358.97808838
          557350.97314 7133723.8516 357.35064697 557354.23242 7133618.7715 232.03236389
          557350.88232 7133623.4258 225.8225708 557353.90527 7133624.4749 233.19082642
          557469.01074 7133720.1553 369.32479858 557469.27686 7133715.9365 369.93502808
          557466.67578 7133717.8311 369.1378479 557359.89258 7133624.2957 170.629776
          557366.63672 7133622.4756 176.33639526 557365.60693 7133620.9863 171.79446411
          557450.54199 7133716.9651 344.87628174 557453.5542 7133714.2292 348.58016968
          557450.30859 7133712.5732 344.95471191 557448.36182 7133736.6172 352.48016357
          557448.41406 7133733.1753 351.63769531 557445.35303 7133735.6453 352.33441162
          557249.75684 7133527.6914 361.3409729 557255.2749 7133521.8706 361.00784302
          557255.30176 7133530.9875 360.71270752 557452.01611 7133631.7197 329.46426392
          557310.99463 7133425.1836 375.63262939 557310.86182 7133424.5483 371.80014038
          557314.20703 7133427.4014 373.33093262 557164.53955 7133427.9697 314.57189941
          557169.4043 7133427.8535 309.1000061 557168.47754 7133424.5461 314.8487854
          557174.07959 7133417.8162 367.2645874 557172.18359 7133417.1641 361.3057251
          557177.86084 7133414.3281 362.44268799 557451.39453 7133730.0854 350.96832275
          557448.22754 7133729.7942 349.75228882 557508.50879 7133617.2512 391.28872681
          557509.67529 7133614.8042 389.78845215 557189.56592 7133620.7695 295.26803589
          557199.02002 7133624.501 279.03659058 557183.75293 7133617.1914 279.19226074
          557166.0415 7133602.9697 308.15536499 557170.37842 7133608.9585 320.57467651
          557171.29785 7133609.6516 306.7980957 557137.48535 7133446.0952 345.66635132
          557136.55518 7133447.9563 357.08276367 557127.90137 7133452.4358 348.24337769
          557470.10742 7133705.3186 379.87820435 557470.48047 7133696.6377 379.81259155
          557477.05957 7133702.6479 379.41534424 557402.75293 7133575.478 281.39358521
          557395.01318 7133569.6147 287.39407349 557392.45068 7133572.2468 274.1831665